
 total force (fx,fy,fz) for set INTERNAL_SELECTION-1_NH_OUTPUT-1 and time  0.1000000E+01

       -1.281667E-05 -2.331952E-05 -1.713840E-05

 displacements (vx,vy,vz) for set INTERNAL_SELECTION-1_NH_OUTPUT-1 and time  0.1000000E+01

         1 -1.238106E+01 -3.790452E+01  5.159912E+02
        25 -5.166098E+00 -1.128983E+01  4.045399E+00
        26 -5.784196E+01 -2.421326E+01  5.152925E+02
        49 -4.976097E+00 -7.329161E+00  4.484240E+00
        50 -4.220980E+01 -2.963577E+01  5.156810E+02
        51 -2.727249E+01 -3.428604E+01  5.158474E+02
        52 -5.503489E+00 -1.054605E+01  4.182792E+00
        53 -5.355419E+00 -9.037447E+00  4.334744E+00
        54  6.803620E+01 -1.232053E+02  6.159461E+02
        55  4.516471E+01 -1.189895E+02  6.155697E+02
        56  2.278233E+01 -1.139208E+02  6.154462E+02
        57  7.443330E-01 -1.084160E+02  6.152887E+02
        58 -2.127027E+01 -1.030601E+02  6.152015E+02
        59 -4.318907E+01 -9.742517E+01  6.151283E+02
        60 -6.531761E+01 -9.204440E+01  6.150330E+02
        61 -8.748059E+01 -8.644369E+01  6.149344E+02
        62 -1.099649E+02 -8.078364E+01  6.148576E+02
        63 -1.356074E+02 -7.429258E+01  6.147887E+02
        64 -1.641960E+02 -6.731702E+01  6.148707E+02
        65 -1.881829E+02 -6.116288E+01  6.150659E+02
        66 -1.750284E+02 -5.914670E+01  6.091026E+02
        67 -1.621972E+02 -5.737193E+01  6.032905E+02
        68 -1.452675E+02 -5.494279E+01  5.951311E+02
        69 -1.330657E+02 -5.336348E+01  5.891122E+02
        70 -1.214135E+02 -5.177978E+01  5.830202E+02
        71 -1.098671E+02 -5.030276E+01  5.768296E+02
        72 -9.858312E+01 -4.891260E+01  5.705738E+02
        73 -8.765592E+01 -4.756024E+01  5.642432E+02
        74 -7.493295E+01 -4.604521E+01  5.566366E+02
        75 -6.256020E+01 -4.458866E+01  5.489595E+02
        76 -5.235244E+01 -4.340815E+01  5.424034E+02
        77 -4.220901E+01 -4.218893E+01  5.357947E+02
        78 -3.224615E+01 -4.094307E+01  5.291506E+02
        79 -2.232545E+01 -3.974452E+01  5.225273E+02
        80 -5.375541E+03 -1.908250E+02  2.974224E+02
        81 -5.555605E+03 -2.140158E+02  2.974502E+02
        82 -5.735917E+03 -2.373223E+02  2.975375E+02
        83 -5.916427E+03 -2.606726E+02  2.976251E+02
        84 -6.097440E+03 -2.840109E+02  2.974542E+02
        85 -6.236915E+03 -3.020768E+02  2.973345E+02
        86 -6.037903E+03 -3.020462E+02  3.188320E+02
        87 -5.912688E+03 -3.020442E+02  3.323791E+02
        88 -5.798929E+03 -3.020620E+02  3.445186E+02
        89 -5.684999E+03 -3.021765E+02  3.564171E+02
        90 -5.570754E+03 -3.024552E+02  3.681474E+02
        91 -5.456098E+03 -3.027994E+02  3.798637E+02
        92 -5.305797E+03 -3.030270E+02  3.952386E+02
        93 -5.133843E+03 -3.028301E+02  4.129089E+02
        94 -4.882416E+03 -3.016801E+02  4.388597E+02
        95 -4.602661E+03 -2.993927E+02  4.677001E+02
        96 -4.340748E+03 -2.962987E+02  4.945420E+02
        97 -4.115008E+03 -2.928608E+02  5.174482E+02
        98 -3.846224E+03 -2.877974E+02  5.442715E+02
        99 -3.578176E+03 -2.816510E+02  5.703613E+02
       100 -3.314848E+03 -2.744701E+02  5.950811E+02
       101 -3.068132E+03 -2.666436E+02  6.172211E+02
       102 -2.860867E+03 -2.591676E+02  6.348473E+02
       103 -2.620373E+03 -2.493805E+02  6.539736E+02
       104 -2.380863E+03 -2.383120E+02  6.712369E+02
       105 -2.149324E+03 -2.262092E+02  6.858884E+02
       106 -1.944315E+03 -2.142075E+02  6.967837E+02
       107 -1.767739E+03 -2.027396E+02  7.043041E+02
       108 -1.571322E+03 -1.885792E+02  7.101569E+02
       109 -1.374977E+03 -1.726810E+02  7.128064E+02
       110 -1.189751E+03 -1.557484E+02  7.115759E+02
       111 -1.043271E+03 -1.407339E+02  7.073869E+02
       112 -9.041389E+02 -1.248355E+02  7.000531E+02
       113 -7.523101E+02 -1.052490E+02  6.872802E+02
       114 -6.140218E+02 -8.485481E+01  6.699464E+02
       115 -5.092417E+02 -6.731729E+01  6.519360E+02
       116 -4.386771E+02 -5.410974E+01  6.362998E+02
       117 -3.931277E+02 -4.488678E+01  6.241712E+02
       118 -3.524861E+02 -3.649089E+01  6.115199E+02
       119 -3.145401E+02 -2.900405E+01  5.977692E+02
       120 -2.790859E+02 -2.227759E+01  5.833358E+02
       121 -2.459508E+02 -1.615456E+01  5.683852E+02
       122 -2.148840E+02 -1.051881E+01  5.530486E+02
       123 -1.857343E+02 -5.177573E+00  5.373388E+02
       124 -1.584717E+02  5.908976E-02  5.212876E+02
       125 -1.331490E+02  5.118085E+00  5.049848E+02
       126 -1.046297E+02  1.114605E+01  4.846892E+02
       127 -6.860866E+01  1.923277E+01  4.551615E+02
       128 -3.304313E+01  2.766757E+01  4.200774E+02
       129  1.970135E+00  3.653094E+01  3.763680E+02
       130  3.129533E+01  4.450903E+01  3.267756E+02
       131  4.904143E+01  4.975855E+01  2.840121E+02
       132  5.979335E+01  5.317276E+01  2.456224E+02
       133  6.572813E+01  5.514865E+01  2.109852E+02
       134  6.831628E+01  5.609918E+01  1.694901E+02
       135  6.662750E+01  5.562605E+01  1.343155E+02
       136  6.277691E+01  5.431525E+01  1.088706E+02
       137  5.880386E+01  5.255798E+01  9.115291E+01
       138  5.596074E+01  5.099089E+01  7.965458E+01
       139  5.326235E+01  4.944873E+01  6.904333E+01
       140  5.061374E+01  4.804208E+01  5.916345E+01
       141  4.777898E+01  4.671721E+01  4.974693E+01
       142  4.355198E+01  4.483354E+01  3.821493E+01
       143  3.746695E+01  4.196121E+01  2.447621E+01
       144  3.016838E+01  3.798283E+01  9.860694E+00
       145  2.308213E+01  3.371628E+01 -2.296999E+00
       146  1.623484E+01  2.917275E+01 -1.241630E+01
       147  9.239659E+00  2.391930E+01 -2.010463E+01
       148  6.432254E-01  1.412667E+01 -2.407587E+01
       149 -6.822051E+01 -2.626968E+01  5.222855E+02
       150 -7.871399E+01 -2.765272E+01  5.291408E+02
       151 -8.931227E+01 -2.899600E+01  5.359916E+02
       152 -1.001432E+02 -3.030350E+01  5.427580E+02
       153 -1.111323E+02 -3.179886E+01  5.494647E+02
       154 -1.226461E+02 -3.330927E+01  5.563085E+02
       155 -1.365596E+02 -3.520298E+01  5.643182E+02
       156 -1.482561E+02 -3.667726E+01  5.707336E+02
       157 -1.603162E+02 -3.834166E+01  5.773399E+02
       158 -1.728139E+02 -4.018495E+01  5.837757E+02
       159 -1.854986E+02 -4.202707E+01  5.900458E+02
       160 -1.985419E+02 -4.390860E+01  5.962832E+02
       161 -2.126586E+02 -4.617178E+01  6.028376E+02
       162 -2.274600E+02 -4.844947E+01  6.091974E+02
       163 -2.419428E+02 -5.099327E+01  6.152515E+02
       164 -2.571335E+02 -5.370659E+01  6.209840E+02
       165 -2.733216E+02 -5.732237E+01  6.267356E+02
       166 -2.920909E+02 -6.243201E+01  6.325324E+02
       167 -2.622890E+02 -6.498984E+01  6.324496E+02
       168 -2.347936E+02 -6.962082E+01  6.324247E+02
       169 -2.084639E+02 -7.392518E+01  6.319065E+02
       170 -1.835143E+02 -7.865063E+01  6.315733E+02
       171 -1.599305E+02 -8.396158E+01  6.312732E+02
       172 -1.352705E+02 -8.913110E+01  6.311454E+02
       173 -1.060908E+02 -9.562358E+01  6.309649E+02
       174 -8.386874E+01 -1.004728E+02  6.309330E+02
       175 -6.152371E+01 -1.053203E+02  6.310402E+02
       176 -3.924210E+01 -1.104747E+02  6.312458E+02
       177 -1.676253E+01 -1.151378E+02  6.314059E+02
       178  5.998838E+00 -1.199131E+02  6.315993E+02
       179  2.926305E+01 -1.245638E+02  6.318709E+02
       180  4.198203E+01 -1.242367E+02  6.266225E+02
       181  5.484639E+01 -1.240184E+02  6.212212E+02
       182  1.177606E+00  1.408358E+01 -2.552852E+01
       183  2.173422E+00  9.337770E+00 -2.498505E+01
       184  3.110182E+00  2.756651E+00 -2.475015E+01
       185  4.010706E+00 -2.341555E+00 -2.495223E+01
       186  4.528307E+00 -3.670552E+00 -2.486384E+01
       187  1.263908E+01 -4.497485E+00 -2.150096E+01
       188  3.442862E+01 -6.454294E+00 -1.440900E+01
       189  6.347098E+01 -1.005752E+01 -4.842876E+00
       190  9.537561E+01 -1.514579E+01  7.052092E+00
       191  1.268466E+02 -2.154487E+01  2.119946E+01
       192  1.550149E+02 -2.908298E+01  3.750434E+01
       193  1.764590E+02 -3.750131E+01  5.514248E+01
       194  1.868563E+02 -4.501360E+01  6.996883E+01
       195  1.919391E+02 -5.036178E+01  8.620467E+01
       196  2.040621E+02 -5.479601E+01  1.075665E+02
       197  2.245843E+02 -6.076434E+01  1.345660E+02
       198  2.483511E+02 -6.727892E+01  1.638383E+02
       199  2.726868E+02 -7.398315E+01  1.949864E+02
       200  2.931343E+02 -7.983364E+01  2.234935E+02
       201  3.130169E+02 -8.585196E+01  2.548031E+02
       202  3.280025E+02 -9.097463E+01  2.825114E+02
       203  3.420275E+02 -9.663051E+01  3.145345E+02
       204  3.520035E+02 -1.018823E+02  3.459227E+02
       205  3.575208E+02 -1.066404E+02  3.751104E+02
       206  3.588037E+02 -1.120706E+02  4.094794E+02
       207  3.534528E+02 -1.173339E+02  4.440500E+02
       208  3.404195E+02 -1.224611E+02  4.777068E+02
       209  3.189873E+02 -1.273931E+02  5.101703E+02
       210  2.885954E+02 -1.321812E+02  5.412379E+02
       211  2.476029E+02 -1.368670E+02  5.717736E+02
       212  2.076101E+02 -1.400574E+02  5.951374E+02
       213  1.714297E+02 -1.416256E+02  6.129817E+02
       214  1.403524E+02 -1.422393E+02  6.266458E+02
       215  1.112699E+02 -1.426752E+02  6.387023E+02
       216  7.732335E+01 -1.435802E+02  6.514117E+02
       217  2.008867E+01 -1.457884E+02  6.685731E+02
       218 -6.519775E+01 -1.489603E+02  6.865406E+02
       219 -1.622923E+02 -1.517671E+02  7.002247E+02
       220 -2.718760E+02 -1.543199E+02  7.103709E+02
       221 -3.923923E+02 -1.566204E+02  7.172301E+02
       222 -5.227201E+02 -1.586793E+02  7.210351E+02
       223 -6.620077E+02 -1.606122E+02  7.219671E+02
       224 -8.094891E+02 -1.624389E+02  7.202261E+02
       225 -9.645291E+02 -1.641898E+02  7.159821E+02
       226 -1.126609E+03 -1.658468E+02  7.093958E+02
       227 -1.295274E+03 -1.674683E+02  7.006200E+02
       228 -1.470032E+03 -1.690549E+02  6.898168E+02
       229 -1.650512E+03 -1.706006E+02  6.771301E+02
       230 -1.836278E+03 -1.721130E+02  6.627134E+02
       231 -2.026991E+03 -1.735975E+02  6.467068E+02
       232 -2.222238E+03 -1.750637E+02  6.292627E+02
       233 -2.419865E+03 -1.764838E+02  6.106934E+02
       234 -2.578299E+03 -1.776028E+02  5.952539E+02
       235 -2.770732E+03 -1.789129E+02  5.759530E+02
       236 -2.979835E+03 -1.803184E+02  5.544215E+02
       237 -3.191903E+03 -1.816897E+02  5.321214E+02
       238 -3.406644E+03 -1.830683E+02  5.091956E+02
       239 -3.623718E+03 -1.844446E+02  4.857967E+02
       240 -3.803634E+03 -1.855524E+02  4.663193E+02
       241 -3.998634E+03 -1.867200E+02  4.452013E+02
       242 -4.220400E+03 -1.879425E+02  4.212688E+02
       243 -4.443114E+03 -1.890001E+02  3.973790E+02
       244 -4.666284E+03 -1.898337E+02  3.735580E+02
       245 -4.828478E+03 -1.903774E+02  3.562262E+02
       246 -4.990405E+03 -1.906416E+02  3.388774E+02
       247 -5.165431E+03 -1.907804E+02  3.200709E+02
       277 -3.966097E+00 -1.185673E+01  4.086401E+00
       278 -4.045075E+00 -1.141693E+01  4.403611E+00
       279 -4.105743E+00 -1.109945E+01  4.585379E+00
       280 -4.147329E+00 -1.087351E+01  4.718442E+00
       281 -4.173893E+00 -1.071344E+01  4.813899E+00
       282 -4.196668E+00 -1.065311E+01  4.842519E+00
       283 -4.221761E+00 -1.069111E+01  4.862500E+00
       284 -4.261405E+00 -1.079398E+01  4.871804E+00
       285 -4.298819E+00 -1.094613E+01  4.846865E+00
       286 -4.349111E+00 -1.114819E+01  4.828971E+00
       287 -4.449591E+00 -1.140148E+01  4.712492E+00
       288 -4.551686E+00 -1.167162E+01  4.659433E+00
       289 -4.682547E+00 -1.179678E+01  4.478467E+00
       290 -4.841303E+00 -1.189342E+01  4.339231E+00
       291 -5.071931E+00 -1.184706E+01  4.207333E+00
       292 -8.170287E-01 -3.352660E-01  2.309498E-01
       293 -8.139375E-01 -1.329491E-01  3.065077E-01
       294 -8.429603E-01 -4.474809E-02  4.234035E-01
       295 -9.419195E-01 -1.660249E-02  5.659341E-01
       296 -1.118100E+00 -1.001739E-02  7.362010E-01
       297 -1.365429E+00 -1.724075E-02  9.303840E-01
       298 -1.680192E+00 -6.039526E-02  1.114479E+00
       299 -2.063986E+00 -2.328910E-01  1.189953E+00
       300 -2.450249E+00 -5.432503E-01  9.096657E-01
       301 -2.803503E+00 -1.117196E+00  4.570849E-01
       302 -3.361521E+00 -1.836421E+00  8.746840E-02
       303 -3.880403E+00 -1.944437E+00 -1.133704E-01
       304 -4.200890E+00 -1.510057E+00 -2.066893E-01
       305 -4.154007E+00 -7.302211E-01 -4.348390E-02
       306 -3.518061E+00 -1.210426E-01  4.195404E-01
       307 -2.757316E+00  1.619734E-01  6.871515E-01
       308 -1.894275E+00  2.886535E-01  6.871840E-01
       309 -1.046366E+00  2.665117E-01  3.651229E-01
       310 -4.284370E-01  1.957775E-01 -2.705700E-01
       311  1.309303E-01  1.661535E-01 -1.282837E+00
       312  6.015438E-01  1.958214E-01 -2.517710E+00
       313  1.035402E+00  2.724834E-01 -3.944419E+00
       314  1.464073E+00  3.800584E-01 -5.586606E+00
       315  1.904982E+00  5.156991E-01 -7.486687E+00
       316  2.371899E+00  6.803996E-01 -9.692443E+00
       317  2.881360E+00  8.654473E-01 -1.225567E+01
       318  3.452402E+00  1.018635E+00 -1.522684E+01
       319  4.084060E+00  9.803795E-01 -1.861633E+01
       320  4.673515E+00  4.669745E-01 -2.198678E+01
       321  4.970766E+00 -7.761583E-01 -2.416846E+01
       322 -2.627150E+00  4.159167E+00 -2.461717E+01
       323 -2.617752E+00  4.830762E-01 -2.125493E+01
       324 -2.193437E+00 -9.178949E-01 -1.731211E+01
       325 -1.983764E+00 -1.058001E+00 -1.394711E+01
       326 -1.897013E+00 -8.795613E-01 -1.109145E+01
       327 -1.856084E+00 -6.640099E-01 -8.645947E+00
       328 -1.841869E+00 -4.771221E-01 -6.539264E+00
       329 -1.867928E+00 -3.192056E-01 -4.709984E+00
       330 -1.947962E+00 -1.821706E-01 -3.094323E+00
       331 -2.115230E+00 -4.473248E-02 -1.621654E+00
       332 -2.430980E+00  9.436954E-02 -1.898260E-01
       333 -2.963468E+00  1.631798E-01  1.342629E+00
       334 -3.513520E+00  1.497976E-01  2.905009E+00
       335 -3.706918E+00  4.195401E-02  4.167045E+00
       336 -3.564597E+00 -4.242272E-02  4.722604E+00
       337 -3.328488E+00 -3.833601E-02  4.928994E+00
       338 -3.116933E+00  3.870615E-02  4.912298E+00
       339 -2.931281E+00  1.430056E-01  4.786359E+00
       340 -2.765422E+00  2.385209E-01  4.616047E+00
       341 -2.611952E+00  2.481477E-01  4.371558E+00
       342 -2.467869E+00  2.381629E-01  4.093122E+00
       343 -2.330590E+00  2.491528E-01  3.833577E+00
       344 -2.184923E+00  2.505707E-01  3.546258E+00
       345 -1.960668E+00  3.631949E-01  3.133860E+00
       346 -1.667405E+00  4.243489E-01  2.393833E+00
       347 -1.410064E+00  2.834233E-01  1.651295E+00
       348 -1.140921E+00  1.613528E-01  1.122083E+00
       349 -9.081827E-01  9.868705E-02  8.158657E-01
       350 -7.415068E-01  6.891519E-02  6.206388E-01
       351 -6.316620E-01  4.497940E-02  4.817788E-01
       352 -5.735916E-01  1.329522E-02  3.789281E-01
       353 -5.607655E-01 -6.073529E-02  2.915683E-01
       354 -5.741174E-01 -2.194363E-01  1.888828E-01
       355 -8.109756E+00 -1.634436E+01  9.540945E-01
       356 -8.289068E+00 -1.765175E+01  1.033689E+00
       357 -7.286260E+00 -1.735530E+01  5.434854E-01
       358 -5.793023E+00 -1.606851E+01 -1.082916E-01
       359 -6.263882E+00 -1.929907E+01  2.212971E-01
       360 -6.165161E+00 -2.127623E+01  7.871524E-01
       361 -5.835660E+00 -2.235578E+01  1.358299E+00
       362 -5.578747E+00 -2.276347E+01  1.895616E+00
       363 -5.270509E+00 -2.246481E+01  2.383609E+00
       364 -4.909140E+00 -2.168493E+01  2.812973E+00
       365 -4.560895E+00 -2.037512E+01  3.196946E+00
       366 -4.238914E+00 -1.848349E+01  3.520023E+00
       367 -3.918538E+00 -1.653408E+01  3.772370E+00
       368 -3.671953E+00 -1.443425E+01  3.953219E+00
       369 -3.416036E+00 -1.218111E+01  4.102202E+00
       370 -3.210529E+00 -9.876825E+00  4.176142E+00
       371 -2.948002E+00 -7.472738E+00  4.209399E+00
       372 -6.827312E-01 -3.012961E-01  1.849128E-01
       373 -7.692214E-01 -3.168672E-01  2.155708E-01
       374 -3.224260E+00 -7.729897E+00  4.148720E+00
       375 -3.314241E+00 -7.701427E+00  4.190472E+00
       376 -3.361334E+00 -7.547538E+00  4.291986E+00
       377 -3.411852E+00 -7.317265E+00  4.459083E+00
       378 -3.475998E+00 -7.069741E+00  4.612068E+00
       379 -3.561462E+00 -6.857536E+00  4.752716E+00
       380 -3.661737E+00 -6.686324E+00  4.888257E+00
       381 -3.750642E+00 -6.624039E+00  4.971952E+00
       382 -3.838297E+00 -6.644260E+00  5.037205E+00
       383 -3.937756E+00 -6.718328E+00  5.088929E+00
       384 -4.035291E+00 -6.854993E+00  5.127381E+00
       385 -4.133469E+00 -7.036345E+00  5.144315E+00
       386 -4.252065E+00 -7.262710E+00  5.142094E+00
       387 -4.388422E+00 -7.468279E+00  5.114767E+00
       388 -4.570032E+00 -7.644599E+00  5.052707E+00
       389 -4.741534E+00 -7.742124E+00  4.947743E+00
       390 -4.954156E+00 -7.736452E+00  4.747084E+00
       391 -4.315394E+00 -1.383372E+01  3.998067E+00
       392 -4.715563E+00 -1.568005E+01  3.905561E+00
       393 -5.316532E+00 -1.784191E+01  3.780854E+00
       394 -5.835314E+00 -1.916578E+01  3.672878E+00
       395 -6.360877E+00 -2.012933E+01  3.523148E+00
       396 -6.954339E+00 -2.076675E+01  3.382882E+00
       397 -7.560666E+00 -2.095887E+01  3.208050E+00
       398 -8.142396E+00 -2.066033E+01  2.924378E+00
       399 -8.726495E+00 -1.989007E+01  2.573556E+00
       400 -9.025849E+00 -1.865555E+01  2.015785E+00
      2754 -7.068182E+00 -3.192113E+01  5.063269E+02
      2755 -5.190123E+01 -1.758123E+01  5.044243E+02
      2756  1.838490E+01 -4.525069E+01  5.165085E+02
      2757 -3.377659E+01 -2.592194E+01  5.086664E+02
      2758  8.023489E+01 -1.204599E+02  6.089646E+02
      2759  3.109255E+01 -1.089473E+02  6.075431E+02
      2760 -1.910942E+01 -9.785628E+01  6.083655E+02
      2761 -6.881698E+01 -8.706095E+01  6.100979E+02
      2762 -1.071035E+02 -7.616197E+01  6.086144E+02
      2763 -1.482479E+02 -6.405963E+01  6.065747E+02
      2764 -1.145717E+02 -6.070911E+01  5.922635E+02
      2765 -8.670192E+01 -5.801398E+01  5.793378E+02
      2766 -7.043251E+01 -5.354699E+01  5.669283E+02
      2767 -3.932354E+01 -5.278277E+01  5.534654E+02
      2768 -1.821352E+01 -4.935808E+01  5.388816E+02
      2769 -1.674892E+00 -4.521493E+01  5.248195E+02
      2770 -5.475374E+03 -2.273616E+02  3.172220E+02
      2771 -5.805721E+03 -2.695499E+02  3.168772E+02
      2772 -5.888840E+03 -2.880860E+02  3.233158E+02
      2773 -9.261336E+01 -1.582021E+01  5.185754E+02
      2774 -5.647604E+03 -2.902172E+02  3.505194E+02
      2775 -5.416998E+03 -2.916075E+02  3.749233E+02
      2776 -5.073717E+03 -2.859518E+02  4.060338E+02
      2777 -4.576701E+03 -2.773493E+02  4.534257E+02
      2778 -4.065085E+03 -2.709821E+02  5.059535E+02
      2779 -3.568150E+03 -2.638223E+02  5.570835E+02
      2780 -3.054935E+03 -2.514700E+02  6.057761E+02
      2781 -2.572434E+03 -2.364608E+02  6.472538E+02
      2782 -2.112560E+03 -2.191348E+02  6.814174E+02
      2783 -1.707943E+03 -1.994452E+02  7.036577E+02
      2784 -1.320501E+03 -1.761384E+02  7.151441E+02
      2785 -9.723850E+02 -1.497823E+02  7.130539E+02
      2786 -6.931835E+02 -1.221170E+02  6.969451E+02
      2787 -4.530740E+02 -9.089282E+01  6.659692E+02
      2788 -3.601439E+02 -5.467921E+01  6.299813E+02
      2789  8.708915E+01 -1.270436E+02  6.176426E+02
      2790 -2.951561E+02 -4.126273E+01  6.086939E+02
      2791 -2.145876E+02 -2.772533E+01  5.753124E+02
      2792 -1.611738E+02 -1.797160E+01  5.464367E+02
      2793 -5.908368E+01 -7.479724E+00  4.924619E+02
      2794  2.279330E+01 -8.141240E-01  4.360262E+02
      2795  9.075311E+01  8.394068E+00  3.521160E+02
      2796  1.055491E+02  2.342889E+01  2.664145E+02
      2797  1.082828E+02  2.872018E+01  1.914194E+02
      2798  9.336093E+01  3.332869E+01  1.221696E+02
      2799  7.216065E+01  4.098157E+01  8.556563E+01
      2800  6.473097E+01  4.012457E+01  6.369172E+01
      2801  6.382238E+01  3.473074E+01  4.285765E+01
      2802  5.202917E+01  2.868123E+01  1.550463E+01
      2803  2.753295E+01  2.348937E+01 -9.108404E+00
      2804 -1.040018E+02 -2.307062E+01  5.333237E+02
      2805 -1.279178E+02 -2.592562E+01  5.466457E+02
      2806 -1.548699E+02 -2.937538E+01  5.610481E+02
      2807 -1.752847E+02 -3.408152E+01  5.743857E+02
      2808 -2.155713E+02 -3.518533E+01  5.859120E+02
      2809 -2.510747E+02 -4.097740E+01  6.011800E+02
      2810 -2.707290E+02 -4.796628E+01  6.137716E+02
      2811 -3.035193E+02 -5.484910E+01  6.255353E+02
      2812 -3.059472E+02 -6.871135E+01  6.384604E+02
      2813 -2.446962E+02 -7.644386E+01  6.375720E+02
      2814 -1.908306E+02 -8.600298E+01  6.368064E+02
      2815 -1.424546E+02 -9.612134E+01  6.371350E+02
      2816 -9.350562E+01 -1.060059E+02  6.377589E+02
      2817 -4.153322E+01 -1.154725E+02  6.377414E+02
      2818  1.413119E+01 -1.249156E+02  6.372529E+02
      2819  6.704190E+01 -1.297407E+02  6.296754E+02
      2820  8.006066E+01 -1.286878E+02  6.231998E+02
      2821  8.889849E+00  1.609409E+01 -2.234413E+01
      2822  1.172325E+01  2.050564E+00 -2.154450E+01
      2823  2.756842E+01  8.488803E-02 -1.613790E+01
      2824  6.971688E+01 -4.475479E+00 -3.932457E-01
      2825  1.206578E+02 -1.186719E+01  2.709343E+01
      2826  1.620189E+02 -2.796523E+01  6.055121E+01
      2827  1.734030E+02 -3.419430E+01  9.656118E+01
      2828  2.052237E+02 -4.196941E+01  1.486617E+02
      2829  2.482848E+02 -5.614902E+01  2.067716E+02
      2830  2.696543E+02 -6.196764E+01  2.670491E+02
      2831  2.738339E+02 -6.628663E+01  3.284639E+02
      2832  2.867855E+02 -8.117675E+01  3.910374E+02
      2833  2.680438E+02 -9.363584E+01  4.611135E+02
      2834  2.299018E+02 -1.088969E+02  5.264344E+02
      2835  1.701919E+02 -1.250446E+02  5.848292E+02
      2836  4.463153E+01 -1.356994E+02  6.469514E+02
      2837 -1.283985E+02 -1.363866E+02  6.777066E+02
      2838 -3.487721E+02 -1.461447E+02  7.051676E+02
      2839 -5.983048E+02 -1.559276E+02  7.189990E+02
      2840 -8.673259E+02 -1.639689E+02  7.207410E+02
      2841 -1.189884E+03 -1.718511E+02  7.123041E+02
      2842 -1.543016E+03 -1.792744E+02  6.942603E+02
      2843 -1.885260E+03 -1.840122E+02  6.692963E+02
      2844 -2.272326E+03 -1.901997E+02  6.376755E+02
      2845 -2.611123E+03 -1.911915E+02  6.035300E+02
      2846 -3.024491E+03 -1.997885E+02  5.660035E+02
      2847 -3.470861E+03 -2.044807E+02  5.198953E+02
      2848 -3.835131E+03 -2.017758E+02  4.763110E+02
      2849 -4.284780E+03 -2.107475E+02  4.329620E+02
      2850 -4.718972E+03 -2.090885E+02  3.837538E+02
      2851 -5.048567E+03 -2.060444E+02  3.454751E+02
      2852  1.073059E+02 -1.265315E+02  6.102111E+02
      2853  5.435749E+01 -1.146430E+02  6.083019E+02
      2854  6.101794E+00 -1.032677E+02  6.076370E+02
      2855 -4.338283E+01 -9.254346E+01  6.092372E+02
      2856 -9.079277E+01 -8.213640E+01  6.107331E+02
      2857 -1.359070E+02 -6.992361E+01  6.097435E+02
      2858 -1.297662E+02 -6.240678E+01  5.991252E+02
      2859 -9.969086E+01 -5.944016E+01  5.857629E+02
      2860 -7.664195E+01 -5.613182E+01  5.730801E+02
      2861 -5.326840E+01 -5.381339E+01  5.606929E+02
      2862 -2.898883E+01 -5.091147E+01  5.461146E+02
      2863 -7.649482E+00 -4.779152E+01  5.317501E+02
      2864 -5.651003E+03 -2.496951E+02  3.169453E+02
      2865 -8.671623E+01 -1.001395E+01  5.077964E+02
      2866 -5.762228E+03 -2.895253E+02  3.380006E+02
      2867 -5.528628E+03 -2.908441E+02  3.631047E+02
      2868 -5.271716E+03 -2.907228E+02  3.890175E+02
      2869 -4.836758E+03 -2.815540E+02  4.280976E+02
      2870 -4.311589E+03 -2.741829E+02  4.805740E+02
      2871 -3.823158E+03 -2.676719E+02  5.309290E+02
      2872 -3.307935E+03 -2.580062E+02  5.822515E+02
      2873 -2.813745E+03 -2.444532E+02  6.271993E+02
      2874 -2.334040E+03 -2.278385E+02  6.657159E+02
      2875 -1.904008E+03 -2.095610E+02  6.940014E+02
      2876 -1.516658E+03 -1.884825E+02  7.107541E+02
      2877 -1.136661E+03 -1.630457E+02  7.159367E+02
      2878 -8.304253E+02 -1.364117E+02  7.068239E+02
      2879 -5.682339E+02 -1.070565E+02  6.834028E+02
      2880 -4.072636E+02 -7.378373E+01  6.499247E+02
      2881 -3.240573E+02 -4.755243E+01  6.194527E+02
      2882 -2.384181E+02 -3.705706E+01  5.936198E+02
      2883 -1.903494E+02 -2.212544E+01  5.611910E+02
      2884 -1.366720E+02 -1.581758E+01  5.350658E+02
      2885 -2.154158E+01 -3.058717E+00  4.668258E+02
      2886  6.140138E+01  3.484414E+00  3.966391E+02
      2887  1.050484E+02  1.497306E+01  3.073054E+02
      2888  1.075437E+02  2.740754E+01  2.285175E+02
      2889  1.040252E+02  2.987172E+01  1.542035E+02
      2890  8.051371E+01  3.884787E+01  1.014048E+02
      2891  6.804314E+01  4.068113E+01  7.406393E+01
      2892  6.375395E+01  3.806518E+01  5.368470E+01
      2893  5.977489E+01  3.185374E+01  2.961691E+01
      2894  4.041971E+01  2.564634E+01  1.885263E+00
      2895  1.660083E+01  2.192896E+01 -1.690376E+01
      2896 -1.006657E+02 -1.930941E+01  5.266403E+02
      2897 -1.198232E+02 -2.350979E+01  5.399860E+02
      2898 -1.459579E+02 -2.621646E+01  5.533568E+02
      2899 -1.710575E+02 -3.061999E+01  5.678799E+02
      2900 -1.897458E+02 -3.554424E+01  5.804592E+02
      2901 -2.514698E+02 -4.540547E+01  6.077207E+02
      2902 -2.797424E+02 -5.173526E+01  6.198036E+02
      2903 -3.568935E+02 -6.471501E+01  6.387851E+02
      2904 -3.191416E+02 -5.937491E+01  6.311388E+02
      2905 -2.777234E+02 -7.321819E+01  6.388627E+02
      2906 -2.154787E+02 -8.079837E+01  6.366005E+02
      2907 -1.698027E+02 -9.087123E+01  6.374021E+02
      2908 -1.173317E+02 -1.010113E+02  6.373319E+02
      2909 -6.800892E+01 -1.107889E+02  6.378749E+02
      2910 -1.469064E+01 -1.198890E+02  6.373370E+02
      2911  5.664400E+01 -1.318566E+02  6.368729E+02
      2912  1.030803E+01  9.104394E+00 -2.168667E+01
      2913  4.759315E+01 -3.221882E+00 -9.354256E+00
      2914  9.531494E+01 -7.377237E+00  1.189992E+01
      2915  1.442946E+02 -1.917238E+01  4.425657E+01
      2916  1.689722E+02 -3.388445E+01  7.751971E+01
      2917  1.860755E+02 -3.665205E+01  1.209295E+02
      2918  2.240367E+02 -4.682695E+01  1.784989E+02
      2919  2.539435E+02 -5.563703E+01  2.352668E+02
      2920  2.900484E+02 -7.179314E+01  2.980999E+02
      2921  3.002587E+02 -8.127296E+01  3.606151E+02
      2922  2.763909E+02 -8.571968E+01  4.260036E+02
      2923  2.559360E+02 -1.024544E+02  4.948379E+02
      2924  2.011735E+02 -1.163228E+02  5.561360E+02
      2925  1.547025E+02 -1.326889E+02  6.036854E+02
      2926  1.216492E+02 -1.325626E+02  6.157729E+02
      2927 -2.897983E+01 -1.343762E+02  6.607907E+02
      2928 -2.333422E+02 -1.407407E+02  6.926762E+02
      2929 -4.712041E+02 -1.512416E+02  7.137915E+02
      2930 -7.240049E+02 -1.600800E+02  7.212233E+02
      2931 -1.027959E+03 -1.680394E+02  7.177362E+02
      2932 -1.362356E+03 -1.755685E+02  7.043853E+02
      2933 -1.718657E+03 -1.822133E+02  6.824456E+02
      2934 -2.072556E+03 -1.866793E+02  6.541814E+02
      2935 -2.466182E+03 -1.924241E+02  6.198099E+02
      2936 -2.812173E+03 -1.968064E+02  5.867626E+02
      2937 -3.245159E+03 -2.021320E+02  5.433742E+02
      2938 -3.682067E+03 -2.052456E+02  4.965691E+02
      2939 -4.049294E+03 -2.081486E+02  4.573133E+02
      2940 -4.512358E+03 -2.110366E+02  4.079366E+02
      2941 -4.889392E+03 -2.073621E+02  3.638344E+02
      2942 -5.238993E+03 -2.073082E+02  3.259589E+02
      2943  2.398516E+01 -4.012872E+01  5.056512E+02
      2944 -1.166466E+02 -6.926077E+01  6.033006E+02
      2945 -7.361426E+01 -6.855074E+01  5.890569E+02
      2946  3.682154E+01 -1.024735E+02  5.975629E+02
      2947 -7.913927E+01 -8.090810E+01  6.059433E+02
      2948 -9.632840E+01 -6.861270E+01  5.963679E+02
      2949  6.538368E+01 -1.096990E+02  5.983721E+02
      2950 -5.400725E+03 -2.389893E+02  3.348311E+02
      2951 -4.138088E+01 -6.581342E+01  5.742145E+02
      2952 -3.945361E+01 -6.125158E+01  5.667875E+02
      2953  9.099574E+00 -6.305834E+01  5.503065E+02
      2954  2.928551E+01 -5.846411E+01  5.339165E+02
      2955 -5.371010E+03 -2.793750E+02  3.701358E+02
      2956 -5.074957E+03 -2.725754E+02  3.956277E+02
      2957  5.784283E+01 -4.995971E+01  5.061340E+02
      2958 -1.318005E+02 -1.014290E+01  5.254732E+02
      2959 -5.598646E+03 -2.765344E+02  3.445345E+02
      2960 -4.035288E+03 -2.493407E+02  4.924167E+02
      2961 -2.550084E+03 -2.230351E+02  6.379042E+02
      2962 -4.300799E+03 -2.525507E+02  4.649497E+02
      2963 -3.039365E+03 -2.343415E+02  5.934519E+02
      2964 -2.791511E+03 -2.288355E+02  6.164670E+02
      2965 -3.298261E+03 -2.401257E+02  5.689578E+02
      2966 -1.658948E+03 -1.943286E+02  7.013182E+02
      2967 -2.275111E+03 -2.141009E+02  6.591923E+02
      2968 -1.853716E+03 -2.019293E+02  6.903994E+02
      2969 -9.037447E+02 -1.554081E+02  7.169405E+02
      2970 -1.066908E+03 -1.662225E+02  7.185850E+02
      2971  1.641459E+02 -9.714923E+00  2.827815E+02
      2972 -4.958693E+02 -1.232879E+02  6.920888E+02
      2973 -3.415570E+02 -8.768581E+01  6.550702E+02
      2974  8.972272E+01  2.904311E+01  9.125022E+01
      2975  2.247930E+00 -1.889863E+01  4.813639E+02
      2976 -1.193371E+02 -5.976728E+00  5.149958E+02
      2977  1.195820E+02 -2.761809E+01  4.190343E+02
      2978  1.512136E+02 -2.508669E+01  3.776692E+02